# vtk DataFile Version 5.1
vtk output
ASCII
DATASET POLYDATA
POINTS 1079 float
38.4248 37.9258 55.638 38.423 37.926 55.6373 38.4 37.9287 55.6281 
38.2999 37.9407 55.5882 38.1426 37.9596 55.5255 37.9854 37.9784 55.4628 
37.8282 37.9973 55.4001 37.671 38.0161 55.3374 37.5138 38.035 55.2747 
37.4136 38.047 55.2347 37.3906 38.0497 55.2256 37.3888 38.05 55.2248 
37.3869 38.0502 55.2241 37.364 38.0529 55.2149 37.2638 38.065 55.175 
37.1066 38.0838 55.1123 36.9494 38.1026 55.0496 36.7922 38.1215 54.9869 
36.6349 38.1404 54.9242 36.4785 38.1493 54.8579 36.3791 38.1516 54.8145 
36.3563 38.1521 54.8046 36.3545 38.1521 54.8037 36.3526 38.1522 54.8029 
36.3298 38.1527 54.793 36.2304 38.1549 54.7496 36.0744 38.1585 54.6814 
35.9184 38.162 54.6132 35.7623 38.1655 54.5451 35.6063 38.169 54.4769 
35.4503 38.1726 54.4087 35.3509 38.1748 54.3653 35.3281 38.1753 54.3553 
35.3262 38.1754 54.3545 35.3244 38.1754 54.3537 35.3016 38.1759 54.3438 
35.2022 38.1782 54.3003 35.0462 38.1817 54.2322 34.8901 38.1852 54.164 
34.7348 38.1866 54.0947 34.5878 38.163 54.012 34.4408 38.1395 53.9293 
34.3471 38.1245 53.8766 34.3257 38.1211 53.8645 34.324 38.1208 53.8635 
34.3222 38.1205 53.8626 34.3008 38.1171 53.8505 34.2071 38.1021 53.7978 
34.0601 38.0786 53.7151 33.9131 38.055 53.6324 33.7661 38.0315 53.5497 
33.619 38.008 53.467 33.472 37.9845 53.3843 33.3784 37.9695 53.3316 
33.3569 37.966 53.3196 33.3552 37.9658 53.3186 33.3534 37.9655 53.3176 
33.332 37.962 53.3056 33.2383 37.9471 53.2529 33.0913 37.9235 53.1702 
32.951 37.8843 53.0836 32.8169 37.8305 52.9935 32.6828 37.7767 52.9033 
32.5487 37.7229 52.8132 32.4632 37.6886 52.7557 32.4436 37.6808 52.7426 
32.4421 37.6801 52.7415 32.4405 37.6795 52.7405 32.4209 37.6716 52.7273 
32.3355 37.6374 52.6698 32.2014 37.5835 52.5797 32.0673 37.5297 52.4896 
31.9332 37.4759 52.3994 31.7991 37.4221 52.3092 31.665 37.3683 52.2191 
31.5795 37.334 52.1617 31.56 37.3262 52.1485 31.5584 37.3255 52.1474 
31.5568 37.3249 52.1464 31.5372 37.317 52.1332 31.4518 37.2827 52.0758 
31.3348 37.2009 51.9832 31.2186 37.1177 51.8905 31.1025 37.0345 51.7979 
30.9863 36.9513 51.7052 30.8702 36.8681 51.6125 30.7962 36.8151 51.5535 
30.7792 36.8029 51.5399 30.7779 36.8019 51.5388 30.7765 36.801 51.5377 
30.7595 36.7888 51.5242 30.6855 36.7358 51.4652 30.5694 36.6526 51.3725 
30.4532 36.5694 51.2798 30.3371 36.4862 51.1871 30.2209 36.4029 51.0945 
30.1048 36.3197 51.0018 30.0395 36.2569 50.9427 30.0254 36.2415 50.9292 
30.0243 36.2402 50.9281 30.0232 36.239 50.9271 30.0091 36.2235 50.9135 
29.9479 36.1562 50.8545 29.8517 36.0504 50.7619 29.7555 35.9447 50.6693 
29.6594 35.839 50.5766 29.5632 35.7333 50.484 29.467 35.6275 50.3914 
29.4058 35.5602 50.3324 29.3917 35.5447 50.3189 29.3906 35.5435 50.3178 
29.3895 35.5423 50.3167 29.3754 35.5268 50.3032 29.3141 35.4594 50.2441 
29.218 35.3537 50.1515 29.1218 35.248 50.0589 29.0256 35.1423 49.9663 
28.9392 35.0284 49.8768 28.8844 34.8879 49.7977 28.8495 34.7984 49.7472 
28.8415 34.7779 49.7357 28.8408 34.7762 49.7347 28.8402 34.7746 49.7338 
28.8322 34.7541 49.7223 28.7972 34.6646 49.6718 28.7424 34.5241 49.5927 
28.6876 34.3836 49.5135 28.6328 34.2431 49.4343 28.5779 34.1027 49.3552 
28.5231 33.9622 49.276 28.4882 33.8727 49.2256 28.4802 33.8522 49.214 
28.4795 33.8505 49.2131 28.4789 33.8489 49.2122 28.4709 33.8284 49.2006 
28.4359 33.7388 49.1502 28.3811 33.5984 49.071 28.3263 33.4579 48.9919 
28.3114 33.3022 48.9331 28.316 33.1391 48.8843 28.3207 32.976 48.8356 
28.3236 32.8721 48.8045 28.3243 32.8483 48.7974 28.3243 32.8464 48.7968 
28.3244 32.8444 48.7962 28.3251 32.8206 48.7891 28.328 32.7167 48.758 
28.3326 32.5536 48.7092 28.3372 32.3905 48.6605 28.3419 32.2274 48.6117 
28.3465 32.0643 48.5629 28.3511 31.9012 48.5141 28.3541 31.7972 48.483 
28.3547 31.7734 48.4759 28.3548 31.7715 48.4753 28.3548 31.7696 48.4748 
28.3555 31.7458 48.4677 28.3585 31.6418 48.4366 28.3669 31.4791 48.3885 
28.4068 31.3189 48.3464 28.4467 31.1588 48.3042 28.4866 30.9987 48.2621 
28.5265 30.8386 48.2199 28.5519 30.7366 48.1931 28.5577 30.7132 48.1869 
28.5582 30.7113 48.1864 28.5587 30.7094 48.1859 28.5645 30.6861 48.1798 
28.5899 30.584 48.1529 28.6298 30.4239 48.1107 28.6697 30.2638 48.0686 
28.7096 30.1037 48.0265 28.7495 29.9436 47.9843 28.7894 29.7835 47.9422 
28.8148 29.6815 47.9153 28.8206 29.6581 47.9091 28.8211 29.6562 47.9086 
28.8216 29.6543 47.9081 28.8274 29.6309 47.902 28.8697 29.5336 47.8806 
28.9406 29.3822 47.8484 29.0115 29.2307 47.8162 29.0824 29.0792 47.784 
29.1533 28.9278 47.7518 29.2241 28.7763 47.7196 29.2693 28.6798 47.6991 
29.2797 28.6577 47.6943 29.2805 28.6559 47.694 29.2813 28.6541 47.6936 
29.2917 28.632 47.6889 29.3369 28.5355 47.6684 29.4078 28.384 47.6362 
29.4787 28.2326 47.604 29.5495 28.0811 47.5718 29.6204 27.9296 47.5396 
29.6985 27.7815 47.5106 29.7554 27.6903 47.4952 29.7684 27.6694 47.4917 
29.7694 27.6677 47.4914 29.7705 27.6661 47.4911 29.7835 27.6452 47.4876 
29.8404 27.554 47.4722 29.9296 27.411 47.4482 30.0188 27.2679 47.4241 
30.108 27.1249 47.4 30.1973 26.9818 47.3759 30.2865 26.8388 47.3518 
30.3434 26.7477 47.3364 30.3564 26.7268 47.3329 30.3574 26.7251 47.3326 
30.3585 26.7234 47.3324 30.3715 26.7025 47.3288 30.4284 26.6114 47.3135 
30.5176 26.4683 47.2894 30.6068 26.3253 47.2653 30.6961 26.1822 47.2412 
30.7916 26.0424 47.2236 30.8884 25.9033 47.2073 30.9502 25.8146 47.1969 
30.9643 25.7943 47.1945 30.9654 25.7927 47.1943 30.9666 25.7911 47.1941 
30.9807 25.7708 47.1917 31.0424 25.6821 47.1814 31.1393 25.543 47.1651 
31.2362 25.4038 47.1488 31.333 25.2647 47.1325 31.4299 25.1256 47.1162 
31.5267 24.9864 47.0999 31.5884 24.8978 47.0895 31.6026 24.8775 47.0871 
31.6037 24.8758 47.0869 31.6049 24.8742 47.0868 31.619 24.8539 47.0844 
31.6807 24.7652 47.074 31.7776 24.6261 47.0577 31.8705 24.4845 47.0413 
31.9524 24.3362 47.0246 32.0343 24.1878 47.0079 32.1162 24.0394 46.9911 
32.1684 23.9449 46.9805 32.1803 23.9232 46.978 32.1813 23.9214 46.9778 
32.1823 23.9197 46.9776 32.1942 23.898 46.9752 32.2464 23.8035 46.9646 
32.3283 23.6551 46.9478 32.4102 23.5067 46.9311 32.4921 23.3583 46.9144 
32.574 23.21 46.8977 32.6559 23.0616 46.8809 32.7081 22.967 46.8703 
32.72 22.9454 46.8679 32.721 22.9436 46.8677 32.722 22.9419 46.8675 
32.7339 22.9202 46.865 32.7861 22.8257 46.8544 32.8402 22.6667 46.8339 
32.8824 22.5032 46.8118 32.9246 22.3397 46.7898 32.9668 22.1761 46.7677 
33.0089 22.0126 46.7456 33.0358 21.9084 46.7316 33.042 21.8846 46.7283 
33.0425 21.8826 46.7281 33.043 21.8807 46.7278 33.0491 21.8568 46.7246 
33.076 21.7526 46.7105 33.1182 21.5891 46.6885 33.1604 21.4256 46.6664 
33.2025 21.2621 46.6443 33.2447 21.0986 46.6223 33.2869 20.9351 46.6002 
33.3084 20.8301 46.5852 33.3102 20.8056 46.5812 33.3104 20.8037 46.5809 
33.3105 20.8017 46.5806 33.3124 20.7772 46.5766 33.3205 20.6704 46.5592 
33.3332 20.5028 46.5319 33.346 20.3352 46.5046 33.3587 20.1675 46.4773 
33.3714 19.9999 46.4501 33.3841 19.8323 46.4228 33.3922 19.7255 46.4054 
33.3941 19.701 46.4014 33.3942 19.699 46.4011 33.3944 19.6971 46.4008 
33.3963 19.6726 46.3968 33.4044 19.5658 46.3794 33.4171 19.3982 46.3521 
33.4298 19.2305 46.3249 33.4425 19.0629 46.2976 33.4553 18.8953 46.2703 
33.4529 18.7285 46.2362 33.4512 18.6222 46.2143 33.4508 18.5978 46.2093 
33.4508 18.5959 46.2089 33.4508 18.5939 46.2085 33.4504 18.5696 46.2035 
33.4487 18.4633 46.1817 33.446 18.2965 46.1474 33.4434 18.1297 46.1132 
33.4407 17.9629 46.0789 33.4381 17.7961 46.0447 33.4354 17.6293 46.0104 
33.4338 17.523 45.9886 33.4334 17.4986 45.9836 33.4333 17.4966 45.9832 
33.4333 17.4947 45.9828 33.4329 17.4703 45.9778 33.4312 17.364 45.9559 
33.4286 17.1972 45.9217 33.4259 17.0304 45.8874 33.4218 16.8643 45.8504 
33.4157 16.6991 45.8094 33.4095 16.5339 45.7684 33.4056 16.4287 45.7423 
33.4047 16.4046 45.7363 33.4046 16.4026 45.7359 33.4046 16.4007 45.7354 
33.4037 16.3766 45.7294 33.3998 16.2713 45.7033 33.3936 16.1061 45.6623 
33.3875 15.9409 45.6213 33.3813 15.7757 45.5804 33.3752 15.6105 45.5394 
33.369 15.4453 45.4984 33.3651 15.3401 45.4723 33.3642 15.316 45.4663 
33.3641 15.314 45.4659 33.3641 15.3121 45.4654 33.3632 15.288 45.4594 
33.3592 15.1827 45.4333 33.3531 15.0175 45.3923 33.3405 14.8532 45.3495 
33.3267 14.689 45.3063 33.313 14.5249 45.2631 33.2993 14.3607 45.2199 
33.2905 14.2561 45.1924 33.2885 14.2321 45.1861 33.2883 14.2302 45.1856 
33.2882 14.2283 45.1851 33.2862 14.2043 45.1788 33.2774 14.0997 45.1513 
33.2637 13.9355 45.1081 33.2499 13.7713 45.065 33.2362 13.6072 45.0218 
33.2225 13.443 44.9786 33.2087 13.2788 44.9355 33.2 13.1742 44.9079 
33.198 13.1503 44.9016 33.1978 13.1483 44.9011 33.1977 13.1464 44.9006 
33.1957 13.1224 44.8943 33.1904 13.0171 44.8692 33.1888 12.8504 44.8343 
33.1872 12.6837 44.7994 33.1856 12.517 44.7645 33.1841 12.3503 44.7296 
33.1825 12.1837 44.6948 33.1814 12.0774 44.6725 33.1812 12.0531 44.6674 
33.1812 12.0512 44.667 33.1812 12.0492 44.6666 33.1809 12.0249 44.6615 
33.1799 11.9186 44.6393 33.1783 11.752 44.6044 33.1767 11.5853 44.5695 
33.1751 11.4186 44.5346 33.1736 11.2519 44.4997 33.1735 11.085 44.4661 
33.1795 10.9779 44.4498 33.1809 10.9534 44.4461 33.181 10.9514 44.4458 
33.1811 10.9494 44.4455 33.1825 10.9249 44.4417 33.1886 10.8177 44.4254 
33.1981 10.6496 44.3999 33.2076 10.4815 44.3743 33.2171 10.3134 44.3487 
33.2265 10.1453 44.3231 33.236 9.97722 44.2976 33.2421 9.8701 44.2813 
33.2435 9.84555 44.2775 33.2436 9.84358 44.2772 33.2437 9.8416 44.2769 
33.2451 9.81706 44.2732 33.2511 9.70994 44.2569 33.2606 9.54183 44.2313 
33.2701 9.37373 44.2057 33.2796 9.20562 44.1802 33.2899 9.0369 44.16 
33.3008 8.86771 44.1438 33.3077 8.7599 44.1335 33.3093 8.7352 44.1311 
33.3095 8.73321 44.1309 33.3096 8.73123 44.1308 33.3112 8.70652 44.1284 
33.3181 8.59872 44.1181 33.329 8.42953 44.1019 33.3399 8.26035 44.0857 
33.3508 8.09116 44.0696 33.3617 7.92198 44.0534 33.3726 7.75279 44.0372 
33.3795 7.64498 44.0269 33.3811 7.62028 44.0246 33.3812 7.61829 44.0244 
33.3814 7.61631 44.0242 33.383 7.5916 44.0218 33.3899 7.4838 44.0115 
[...]
POINT_DATA 1079
SCALARS Voltage float
LOOKUP_TABLE default
0 0 0 0 0 0 0 0 0 
0 0 0 0 0 0 0 0 0 
0 0 0 0 0 0 0 0 0 
0 0 0 0 0 0 0 0 0 
0 0 0 0 0 0 0 0 0 
0 0 0 0 0 0 0 0 0 
0 0 0 0 0 0 0 0 0 
0 0 0 0 0 0 0 0 0 
0 0 0 0 0 0 0 0 0 
0 0 0 0 0 0 0 0 0 
0 0 0 0 0 0 0 0 0 
0 0 0 0 0 0 0 0 0 
0 0 0 0 0 0 0 0 0 
0 0 0 0 0 0 0 0 0 
0 0 0 0 0 0 0 0 0 
0 0 0 0 0 0 0 0 0 
0 0 0 0 0 0 0 0 0 
0 0 0 0 0 0 0 0 0 
0 0 0 0 0 0 0 0 0 
0 0 0 0 0 0 0 0 0 
0 0 0 0 0 0 0 0 0 
0 0 0 0 0 0 0 0 0 
0 0 0 0 0 0 0 0 0 
0 0 0 0 0 0 0 0 0 
0 0 0 0 0 0 0 0 0 
0 0 0 0 0 0 0 0 0 
0 0 0 0 0 0 0 0 0 
0 0 0 0 0 0 0 0 0 
0 0 0 0 0 0 0 0 0 
0 0 0 0 0 0 0 0 0 
0 0 0 0 0 0 0 0 0 
0 0 0 0 0 0 0 0 0 
0 0 0 0 0 0 0 0 0 
0 0 0 0 0 0 0 0 0 
0 0 0 0 0 0 0 0 0 
0 0 0 0 0 0 0 0 0 
0 0 0 0 0 0 0 0 0 
0 0 0 0 0 0 0 0 0 
0 0 0 0 0 0 0 0 0 
0 0 0 0 0 0 0 0 0 
0 0 0 0 0 0 0 0 0 
0 0 0 0 0 0 0 0 0 
0 0 0 0 0 0 0 0 0 
0 0 0 0 0 0 0 0 0 
0 0 0 0 0 0 0 0 0 
0 0 0 0 0 0 0 0 0 
0 0 0 0 0 0 0 0 0 
0 0 0 0 0 0 0 0 0 
0 0 0 0 0 0 0 0 0 
0 0 0 0 0 0 0 0 0 
0 0 0 0 0 0 0 0 0 
0 0 0 0 0 0 0 0 0 
0 0 0 0 0 0 0 0 0 
0 0 0 0 0 0 0 0 0 
0 0 0 0 0 0 0 0 0 
0 0 0 0 0 0 0 0 0 
0 0 0 0 0 0 0 0 0 
0 0 0 0 0 0 0 0 0 
0 0 0 0 0 0 0 0 0 
0 0 0 0 0 0 0 0 0 
0 0 0 0 0 0 0 0 0 
0 0 0 0 0 0 0 0 0 
0 0 0 0 0 0 0 0 0 
0 0 0 0 0 0 0 0 0 
0 0 0 0 0 0 0 0 0 
0 0 0 0 0 0 0 0 0 
0 0 0 0 0 0 0 0 0 
0 0 0 0 0 0 0 0 0 
0 0 0 0 0 0 0 0 0 
0 0 0 0 0 0 0 0 0 
0 0 0 0 0 0 0 0 0 
0 0 0 0 0 0 0 0 0 
0 0 0 0 0 0 0 0 0 
0 0 0 0 0 0 0 0 0 
0 0 0 0 0 0 0 0 0 
0 0 0 0 0 0 0 0 0 
0 0 0 0 0 0 0 0 0 
0 0 0 0 0 0 0 0 0 
0 0 0 0 0 0 0 0 0 
0 0 0 0 0 0 0 0 0 
0 0 0 0 0 0 0 0 0 
0 0 0 0 0 0 0 0 0 
0 0 0 0 0 0 0 0 0 
0 0 0 0 0 0 0 0 0 
0 0 0 0 0 0 0 0 0 
0 0 0 0 0 0 0 0 0 
0 0 0 0 0 0 0 0 0 
0 0 0 0 0 0 0 0 0 
0 0 0 0 0 0 0 0 0 
0 0 0 0 0 0 0 0 0 
0 0 0 0 0 0 0 0 0 
0 0 0 0 0 0 0 0 0 
0 0 0 0 0 0 0 0 0 
0 0 0 0 0 0 0 0 0 
0 0 0 0 0 0 0 0 0 
0 0 0 0 0 0 0 0 0 
0 0 0 0 0 0 0 0 0 
0 0 0 0 0 0 0 0 0 
0 0 0 0 0 0 0 0 0 
0 0 0 0 0 0 0 0 0 
0 0 0 0 0 0 0 0 0 
0 0 0 0 0 0 0 0 0 
0 0 0 0 0 0 0 0 0 
0 0 0 0 0 0 0 0 0 
0 0 0 0 0 0 0 0 0 
0 0 0 0 0 0 0 0 0 
0 0 0 0 0 0 0 0 0 
0 0 0 0 0 0 0 0 0 
0 0 0 0 0 0 0 0 0 
0 0 0 0 0 0 0 0 0 
0 0 0 0 0 0 0 0 0 
0 0 0 0 0 0 0 0 0 
80 80 80 80 80 80 80 80 80 
80 80 80 80 80 80 80 80 80 
80 80 80 80 80 80 80 80 80 
80 80 80 80 0 0 0 0 0 
0 0 0 0 0 0 0 0 0 
0 0 0 0 0 0 0 0 0 
0 0 0 0 0 0 0 0 0 
0 0 0 0 0 0 0 0 
